Title='SCMFT'
Variables='x', 'phiA', 'phiB', 'phiS'
ZONE T='Data'
I=80 ZONETYPE=Ordered DATAPACKING=POINT
0.000000  1.085975064943  0.006447378014  0.073648534294
0.136950  1.089945202812  0.006783584281  0.072761448286
0.273900  1.093792220880  0.007142456716  0.071908814124
0.410850  1.099907758916  0.007763817325  0.070568631812
0.547800  1.107848294605  0.008684991904  0.068854766458
0.684750  1.116990043242  0.009963497888  0.066914209922
0.821700  1.126516876501  0.011683127914  0.064919773486
0.958650  1.135393613023  0.013963076372  0.063066657067
1.095600  1.142320039624  0.016971277777  0.061575840901
1.232550  1.145665076598  0.020943463408  0.060707425444
1.369500  1.143389859120  0.026209473920  0.060787999670
1.506450  1.132987291596  0.033227360766  0.062258162348
1.643400  1.111499144824  0.042622230223  0.065748762634
1.780350  1.075721738545  0.055218124947  0.072192935707
1.917300  1.022760909414  0.072035386325  0.082960314586
2.054250  0.951081508255  0.094207020734  0.099921278169
2.191200  0.861982481909  0.122767693284  0.125163105384
2.328150  0.760912821995  0.158325566971  0.159883174304
2.465100  0.505024790850  0.200892086006  0.296148978885
2.602050  0.320741470921  0.242217800178  0.434943498331
2.739000  0.200989100331  0.276965763110  0.542370560432
2.875950  0.127593075083  0.303141609697  0.613641138795
3.012900  0.083250151079  0.321026529114  0.658353862268
3.149850  0.056100503796  0.331944547476  0.686626672186
3.286800  0.039060468296  0.337463040708  0.705287121434
3.423750  0.028095487030  0.339008636955  0.718316875963
3.560700  0.020905136255  0.337737440902  0.727937739488
3.697650  0.016142178907  0.334528789594  0.735396642871
3.834600  0.012987767807  0.330026426645  0.741416263336
3.971550  0.010925305426  0.324690191287  0.746434096623
4.108500  0.009618303969  0.318843167520  0.750727008406
4.245450  0.008842072471  0.312709758283  0.754477115515
4.382400  0.008443791449  0.306444586452  0.757807899696
4.519350  0.008318125360  0.300153657808  0.760804953930
4.656300  0.008391739798  0.293909505075  0.763528511496
4.793250  0.008613165553  0.287761849765  0.766021375808
4.930200  0.008946009048  0.281745010910  0.768314146232
5.067150  0.009364328572  0.275882990929  0.770428777890
5.204100  0.009849448382  0.270192921230  0.772381072207
5.341050  0.010387745461  0.264687359450  0.774182457643
5.478000  0.010969103250  0.259375789004  0.775841286010
5.614950  0.011585827455  0.254265569334  0.777363790323
5.751900  0.012231884523  0.249362512276  0.778754801032
5.888850  0.012902366982  0.244671208261  0.780018286000
6.025800  0.013593119269  0.240195189598  0.781157758930
6.162750  0.014300477759  0.235936992390  0.782176587123
6.299700  0.015021092543  0.231898160407  0.783078220212
6.436650  0.015751808038  0.228079221294  0.783866355236
6.573600  0.016489586136  0.224479656075  0.784545049292
6.710550  0.017231460213  0.221097876060  0.785118788336
6.847500  0.017974511486  0.217931216119  0.785592518941
6.984450  0.018715861460  0.214975949364  0.785971648846
7.121400  0.019452675771  0.212227325329  0.786262021477
7.258350  0.020182175821  0.209679631422  0.786469869314
7.395300  0.020901655428  0.207326275729  0.786601750721
7.532250  0.021608500275  0.205159888010  0.786664474707
7.669200  0.022300208406  0.203172434937  0.786665017836
7.806150  0.022974410371  0.201355345164  0.786610437262
7.943100  0.023628887936  0.199699639734  0.786507783490
8.080050  0.024261590496  0.198196063468  0.786364016039
8.217000  0.024870648597  0.196835213361  0.786185924690
8.353950  0.025454384159  0.195607660553  0.785980058440
8.490900  0.026011317170  0.194504063065  0.785752663760
8.627850  0.026540168807  0.193515267200  0.785509633154
8.764800  0.027039861060  0.192632396192  0.785256464532
8.901750  0.027509513087  0.191846925348  0.784998231395
9.038700  0.027948434582  0.191150743522  0.784739563470
9.175650  0.028356116567  0.190536201274  0.784484637039
9.312600  0.028732220027  0.189996146469  0.784237174006
9.449550  0.029076562878  0.189523948374  0.784000448519
9.586500  0.029389105723  0.189113511553  0.783777299892
9.723450  0.029669936911  0.188759280926  0.783570150519
9.860400  0.029919257321  0.188456239458  0.783381027478
9.997350  0.030137365324  0.188199899873  0.783211586606
10.134300  0.030324642298  0.187986291736  0.783063137894
10.271250  0.030481539038  0.187811945145  0.782936671205
10.408200  0.030608563347  0.187673872102  0.782832881413
10.545150  0.030706269039  0.187569546531  0.782752192233
10.682100  0.030775246548  0.187496883722  0.782694778141
10.819050  0.030816115257  0.187454219858  0.782660583926
10.956000  0.030829517641  0.187440292135  0.782649341523
